# vtk DataFile Version 2.0
generated by CFD-lab course output (written by Tobias Neckel) 
ASCII

DATASET STRUCTURED_GRID
DIMENSIONS  51 51 1 
POINTS 2601 float

0.000000 0.000000 0
0.020000 0.000000 0
0.040000 0.000000 0
0.060000 0.000000 0
0.080000 0.000000 0
0.100000 0.000000 0
0.120000 0.000000 0
0.140000 0.000000 0
0.160000 0.000000 0
0.180000 0.000000 0
0.200000 0.000000 0
0.220000 0.000000 0
0.240000 0.000000 0
0.260000 0.000000 0
0.280000 0.000000 0
0.300000 0.000000 0
0.320000 0.000000 0
0.340000 0.000000 0
0.360000 0.000000 0
0.380000 0.000000 0
0.400000 0.000000 0
0.420000 0.000000 0
0.440000 0.000000 0
0.460000 0.000000 0
0.480000 0.000000 0
0.500000 0.000000 0
0.520000 0.000000 0
0.540000 0.000000 0
0.560000 0.000000 0
0.580000 0.000000 0
0.600000 0.000000 0
0.620000 0.000000 0
0.640000 0.000000 0
0.660000 0.000000 0
0.680000 0.000000 0
0.700000 0.000000 0
0.720000 0.000000 0
0.740000 0.000000 0
0.760000 0.000000 0
0.780000 0.000000 0
0.800000 0.000000 0
0.820000 0.000000 0
0.840000 0.000000 0
0.860000 0.000000 0
0.880000 0.000000 0
0.900000 0.000000 0
0.920000 0.000000 0
0.940000 0.000000 0
0.960000 0.000000 0
0.980000 0.000000 0
1.000000 0.000000 0
0.000000 0.020000 0
0.020000 0.020000 0
0.040000 0.020000 0
0.060000 0.020000 0
0.080000 0.020000 0
0.100000 0.020000 0
0.120000 0.020000 0
0.140000 0.020000 0
0.160000 0.020000 0
0.180000 0.020000 0
0.200000 0.020000 0
0.220000 0.020000 0
0.240000 0.020000 0
0.260000 0.020000 0
0.280000 0.020000 0
0.300000 0.020000 0
0.320000 0.020000 0
0.340000 0.020000 0
0.360000 0.020000 0
0.380000 0.020000 0
0.400000 0.020000 0
0.420000 0.020000 0
0.440000 0.020000 0
0.460000 0.020000 0
0.480000 0.020000 0
0.500000 0.020000 0
0.520000 0.020000 0
0.540000 0.020000 0
0.560000 0.020000 0
0.580000 0.020000 0
0.600000 0.020000 0
0.620000 0.020000 0
0.640000 0.020000 0
0.660000 0.020000 0
0.680000 0.020000 0
0.700000 0.020000 0
0.720000 0.020000 0
0.740000 0.020000 0
0.760000 0.020000 0
0.780000 0.020000 0
0.800000 0.020000 0
0.820000 0.020000 0
0.840000 0.020000 0
0.860000 0.020000 0
0.880000 0.020000 0
0.900000 0.020000 0
0.920000 0.020000 0
0.940000 0.020000 0
0.960000 0.020000 0
0.980000 0.020000 0
1.000000 0.020000 0
0.000000 0.040000 0
0.020000 0.040000 0
0.040000 0.040000 0
0.060000 0.040000 0
0.080000 0.040000 0
0.100000 0.040000 0
0.120000 0.040000 0
0.140000 0.040000 0
0.160000 0.040000 0
0.180000 0.040000 0
0.200000 0.040000 0
0.220000 0.040000 0
0.240000 0.040000 0
0.260000 0.040000 0
0.280000 0.040000 0
0.300000 0.040000 0
0.320000 0.040000 0
0.340000 0.040000 0
0.360000 0.040000 0
0.380000 0.040000 0
0.400000 0.040000 0
0.420000 0.040000 0
0.440000 0.040000 0
0.460000 0.040000 0
0.480000 0.040000 0
0.500000 0.040000 0
0.520000 0.040000 0
0.540000 0.040000 0
0.560000 0.040000 0
0.580000 0.040000 0
0.600000 0.040000 0
0.620000 0.040000 0
0.640000 0.040000 0
0.660000 0.040000 0
0.680000 0.040000 0
0.700000 0.040000 0
0.720000 0.040000 0
0.740000 0.040000 0
0.760000 0.040000 0
0.780000 0.040000 0
0.800000 0.040000 0
0.820000 0.040000 0
0.840000 0.040000 0
0.860000 0.040000 0
0.880000 0.040000 0
0.900000 0.040000 0
0.920000 0.040000 0
0.940000 0.040000 0
0.960000 0.040000 0
0.980000 0.040000 0
1.000000 0.040000 0
0.000000 0.060000 0
0.020000 0.060000 0
0.040000 0.060000 0
0.060000 0.060000 0
0.080000 0.060000 0
0.100000 0.060000 0
0.120000 0.060000 0
0.140000 0.060000 0
0.160000 0.060000 0
0.180000 0.060000 0
0.200000 0.060000 0
0.220000 0.060000 0
0.240000 0.060000 0
0.260000 0.060000 0
0.280000 0.060000 0
0.300000 0.060000 0
0.320000 0.060000 0
0.340000 0.060000 0
0.360000 0.060000 0
0.380000 0.060000 0
0.400000 0.060000 0
0.420000 0.060000 0
0.440000 0.060000 0
0.460000 0.060000 0
0.480000 0.060000 0
0.500000 0.060000 0
0.520000 0.060000 0
0.540000 0.060000 0
0.560000 0.060000 0
0.580000 0.060000 0
0.600000 0.060000 0
0.620000 0.060000 0
0.640000 0.060000 0
0.660000 0.060000 0
0.680000 0.060000 0
0.700000 0.060000 0
0.720000 0.060000 0
0.740000 0.060000 0
0.760000 0.060000 0
0.780000 0.060000 0
0.800000 0.060000 0
0.820000 0.060000 0
0.840000 0.060000 0
0.860000 0.060000 0
0.880000 0.060000 0
0.900000 0.060000 0
0.920000 0.060000 0
0.940000 0.060000 0
0.960000 0.060000 0
0.980000 0.060000 0
1.000000 0.060000 0
0.000000 0.080000 0
0.020000 0.080000 0
0.040000 0.080000 0
0.060000 0.080000 0
0.080000 0.080000 0
0.100000 0.080000 0
0.120000 0.080000 0
0.140000 0.080000 0
0.160000 0.080000 0
0.180000 0.080000 0
0.200000 0.080000 0
0.220000 0.080000 0
0.240000 0.080000 0
0.260000 0.080000 0
0.280000 0.080000 0
0.300000 0.080000 0
0.320000 0.080000 0
0.340000 0.080000 0
0.360000 0.080000 0
0.380000 0.080000 0
0.400000 0.080000 0
0.420000 0.080000 0
0.440000 0.080000 0
0.460000 0.080000 0
0.480000 0.080000 0
0.500000 0.080000 0
0.520000 0.080000 0
0.540000 0.080000 0
0.560000 0.080000 0
0.580000 0.080000 0
0.600000 0.080000 0
0.620000 0.080000 0
0.640000 0.080000 0
0.660000 0.080000 0
0.680000 0.080000 0
0.700000 0.080000 0
0.720000 0.080000 0
0.740000 0.080000 0
0.760000 0.080000 0
0.780000 0.080000 0
0.800000 0.080000 0
0.820000 0.080000 0
0.840000 0.080000 0
0.860000 0.080000 0
0.880000 0.080000 0
0.900000 0.080000 0
0.920000 0.080000 0
0.940000 0.080000 0
0.960000 0.080000 0
0.980000 0.080000 0
1.000000 0.080000 0
0.000000 0.100000 0
0.020000 0.100000 0
0.040000 0.100000 0
0.060000 0.100000 0
0.080000 0.100000 0
0.100000 0.100000 0
0.120000 0.100000 0
0.140000 0.100000 0
0.160000 0.100000 0
0.180000 0.100000 0
0.200000 0.100000 0
0.220000 0.100000 0
0.240000 0.100000 0
0.260000 0.100000 0
0.280000 0.100000 0
0.300000 0.100000 0
0.320000 0.100000 0
0.340000 0.100000 0
0.360000 0.100000 0
0.380000 0.100000 0
0.400000 0.100000 0
0.420000 0.100000 0
0.440000 0.100000 0
0.460000 0.100000 0
0.480000 0.100000 0
0.500000 0.100000 0
0.520000 0.100000 0
0.540000 0.100000 0
0.560000 0.100000 0
0.580000 0.100000 0
0.600000 0.100000 0
0.620000 0.100000 0
0.640000 0.100000 0
0.660000 0.100000 0
0.680000 0.100000 0
0.700000 0.100000 0
0.720000 0.100000 0
0.740000 0.100000 0
0.760000 0.100000 0
0.780000 0.100000 0
0.800000 0.100000 0
0.820000 0.100000 0
0.840000 0.100000 0
0.860000 0.100000 0
0.880000 0.100000 0
0.900000 0.100000 0
0.920000 0.100000 0
0.940000 0.100000 0
0.960000 0.100000 0
0.980000 0.100000 0
1.000000 0.100000 0
0.000000 0.120000 0
0.020000 0.120000 0
0.040000 0.120000 0
0.060000 0.120000 0
0.080000 0.120000 0
0.100000 0.120000 0
0.120000 0.120000 0
0.140000 0.120000 0
0.160000 0.120000 0
0.180000 0.120000 0
0.200000 0.120000 0
0.220000 0.120000 0
0.240000 0.120000 0
0.260000 0.120000 0
0.280000 0.120000 0
0.300000 0.120000 0
0.320000 0.120000 0
0.340000 0.120000 0
0.360000 0.120000 0
0.380000 0.120000 0
0.400000 0.120000 0
0.420000 0.120000 0
0.440000 0.120000 0
0.460000 0.120000 0
0.480000 0.120000 0
0.500000 0.120000 0
0.520000 0.120000 0
0.540000 0.120000 0
0.560000 0.120000 0
0.580000 0.120000 0
0.600000 0.120000 0
0.620000 0.120000 0
0.640000 0.120000 0
0.660000 0.120000 0
0.680000 0.120000 0
0.700000 0.120000 0
0.720000 0.120000 0
0.740000 0.120000 0
0.760000 0.120000 0
0.780000 0.120000 0
0.800000 0.120000 0
0.820000 0.120000 0
0.840000 0.120000 0
0.860000 0.120000 0
0.880000 0.120000 0
0.900000 0.120000 0
0.920000 0.120000 0
0.940000 0.120000 0
0.960000 0.120000 0
0.980000 0.120000 0
1.000000 0.120000 0
0.000000 0.140000 0
0.020000 0.140000 0
0.040000 0.140000 0
0.060000 0.140000 0
0.080000 0.140000 0
0.100000 0.140000 0
0.120000 0.140000 0
0.140000 0.140000 0
0.160000 0.140000 0
0.180000 0.140000 0
0.200000 0.140000 0
0.220000 0.140000 0
0.240000 0.140000 0
0.260000 0.140000 0
0.280000 0.140000 0
0.300000 0.140000 0
0.320000 0.140000 0
0.340000 0.140000 0
0.360000 0.140000 0
0.380000 0.140000 0
0.400000 0.140000 0
0.420000 0.140000 0
0.440000 0.140000 0
0.460000 0.140000 0
0.480000 0.140000 0
0.500000 0.140000 0
0.520000 0.140000 0
0.540000 0.140000 0
0.560000 0.140000 0
0.580000 0.140000 0
0.600000 0.140000 0
0.620000 0.140000 0
0.640000 0.140000 0
0.660000 0.140000 0
0.680000 0.140000 0
0.700000 0.140000 0
0.720000 0.140000 0
0.740000 0.140000 0
0.760000 0.140000 0
0.780000 0.140000 0
0.800000 0.140000 0
0.820000 0.140000 0
0.840000 0.140000 0
0.860000 0.140000 0
0.880000 0.140000 0
0.900000 0.140000 0
0.920000 0.140000 0
0.940000 0.140000 0
0.960000 0.140000 0
0.980000 0.140000 0
1.000000 0.140000 0
0.000000 0.160000 0
0.020000 0.160000 0
0.040000 0.160000 0
0.060000 0.160000 0
0.080000 0.160000 0
0.100000 0.160000 0
0.120000 0.160000 0
0.140000 0.160000 0
0.160000 0.160000 0
0.180000 0.160000 0
0.200000 0.160000 0
0.220000 0.160000 0
0.240000 0.160000 0
0.260000 0.160000 0
0.280000 0.160000 0
0.300000 0.160000 0
0.320000 0.160000 0
0.340000 0.160000 0
0.360000 0.160000 0
0.380000 0.160000 0
0.400000 0.160000 0
0.420000 0.160000 0
0.440000 0.160000 0
0.460000 0.160000 0
0.480000 0.160000 0
0.500000 0.160000 0
0.520000 0.160000 0
0.540000 0.160000 0
0.560000 0.160000 0
0.580000 0.160000 0
0.600000 0.160000 0
0.620000 0.160000 0
0.640000 0.160000 0
0.660000 0.160000 0
0.680000 0.160000 0
0.700000 0.160000 0
0.720000 0.160000 0
0.740000 0.160000 0
0.760000 0.160000 0
0.780000 0.160000 0
0.800000 0.160000 0
0.820000 0.160000 0
0.840000 0.160000 0
0.860000 0.160000 0
0.880000 0.160000 0
0.900000 0.160000 0
0.920000 0.160000 0
0.940000 0.160000 0
0.960000 0.160000 0
0.980000 0.160000 0
1.000000 0.160000 0
0.000000 0.180000 0
0.020000 0.180000 0
0.040000 0.180000 0
0.060000 0.180000 0
0.080000 0.180000 0
0.100000 0.180000 0
0.120000 0.180000 0
0.140000 0.180000 0
0.160000 0.180000 0
0.180000 0.180000 0
0.200000 0.180000 0
0.220000 0.180000 0
0.240000 0.180000 0
0.260000 0.180000 0
0.280000 0.180000 0
0.300000 0.180000 0
0.320000 0.180000 0
0.340000 0.180000 0
0.360000 0.180000 0
0.380000 0.180000 0
0.400000 0.180000 0
0.420000 0.180000 0
0.440000 0.180000 0
0.460000 0.180000 0
0.480000 0.180000 0
0.500000 0.180000 0
0.520000 0.180000 0
0.540000 0.180000 0
0.560000 0.180000 0
0.580000 0.180000 0
0.600000 0.180000 0
0.620000 0.180000 0
[...]
POINT_DATA 2601 

VECTORS velocity float
0.000000 0.000000 0
0.000000 0.000000 0
0.000000 0.000000 0
0.000000 0.000000 0
-0.000000 0.000000 0
-0.000000 0.000000 0
-0.000000 0.000000 0
-0.000000 0.000000 0
-0.000000 0.000000 0
0.000000 0.000000 0
0.000000 0.000000 0
0.000000 0.000000 0
0.000000 0.000000 0
0.000000 0.000000 0
0.000000 0.000000 0
-0.000000 0.000000 0
-0.000000 0.000000 0
-0.000000 0.000000 0
-0.000000 0.000000 0
-0.000000 0.000000 0
-0.000000 0.000000 0
0.000000 0.000000 0
0.000000 0.000000 0
0.000000 0.000000 0
0.000000 0.000000 0
0.000000 0.000000 0
0.000000 0.000000 0
-0.000000 0.000000 0
-0.000000 0.000000 0
-0.000000 0.000000 0
-0.000000 0.000000 0
-0.000000 0.000000 0
-0.000000 0.000000 0
0.000000 0.000000 0
0.000000 0.000000 0
0.000000 0.000000 0
0.000000 0.000000 0
0.000000 0.000000 0
0.000000 0.000000 0
0.000000 0.000000 0
0.000000 0.000000 0
-0.000000 0.000000 0
-0.000000 0.000000 0
-0.000000 0.000000 0
-0.000000 0.000000 0
-0.000000 0.000000 0
-0.000000 0.000000 0
0.000000 0.000000 0
0.000000 0.000000 0
0.000000 0.000000 0
0.000000 0.000000 0
0.000000 0.000001 0
0.000061 -0.000060 0
0.000084 -0.000024 0
-0.000009 0.000054 0
-0.000249 0.000142 0
-0.000636 0.000226 0
-0.001161 0.000300 0
-0.001804 0.000362 0
-0.002546 0.000412 0
-0.003365 0.000450 0
-0.004243 0.000477 0
-0.005162 0.000495 0
-0.006105 0.000504 0
-0.007057 0.000506 0
-0.008005 0.000500 0
-0.008935 0.000488 0
-0.009834 0.000470 0
-0.010692 0.000445 0
-0.011495 0.000414 0
-0.012231 0.000377 0
-0.012889 0.000333 0
-0.013457 0.000282 0
-0.013924 0.000226 0
-0.014278 0.000164 0
-0.014511 0.000096 0
-0.014613 0.000024 0
-0.014578 -0.000051 0
-0.014402 -0.000129 0
-0.014083 -0.000207 0
-0.013621 -0.000284 0
-0.013023 -0.000357 0
-0.012295 -0.000425 0
-0.011450 -0.000485 0
-0.010504 -0.000536 0
-0.009475 -0.000576 0
-0.008386 -0.000602 0
-0.007262 -0.000613 0
-0.006130 -0.000609 0
-0.005017 -0.000589 0
-0.003953 -0.000554 0
-0.002963 -0.000503 0
-0.002075 -0.000439 0
-0.001309 -0.000363 0
-0.000684 -0.000278 0
-0.000212 -0.000188 0
0.000102 -0.000097 0
0.000263 -0.000012 0
0.000287 0.000057 0
0.000208 0.000096 0
0.000083 0.000082 0
0.000000 0.000000 0
0.000000 0.000000 0
0.000025 -0.000084 0
-0.000071 0.000070 0
-0.000378 0.000332 0
-0.000933 0.000626 0
-0.001739 0.000912 0
-0.002780 0.001168 0
-0.004027 0.001385 0
-0.005448 0.001562 0
-0.007007 0.001698 0
-0.008672 0.001797 0
-0.010409 0.001862 0
-0.012189 0.001895 0
-0.013984 0.001900 0
-0.015768 0.001877 0
-0.017516 0.001829 0
-0.019203 0.001757 0
-0.020807 0.001660 0
-0.022305 0.001539 0
-0.023675 0.001395 0
-0.024894 0.001226 0
-0.025941 0.001035 0
-0.026795 0.000821 0
-0.027438 0.000587 0
-0.027852 0.000335 0
-0.028024 0.000067 0
-0.027942 -0.000211 0
-0.027599 -0.000496 0
-0.026993 -0.000781 0
-0.026128 -0.001060 0
-0.025012 -0.001326 0
-0.023661 -0.001573 0
-0.022097 -0.001791 0
-0.020348 -0.001975 0
-0.018449 -0.002118 0
-0.016439 -0.002213 0
-0.014363 -0.002256 0
-0.012269 -0.002245 0
-0.010207 -0.002177 0
-0.008226 -0.002054 0
-0.006375 -0.001878 0
-0.004697 -0.001654 0
-0.003233 -0.001391 0
-0.002013 -0.001097 0
-0.001058 -0.000787 0
-0.000375 -0.000475 0
0.000041 -0.000185 0
0.000220 0.000055 0
0.000212 0.000204 0
0.000099 0.000208 0
0.000000 0.000000 0
0.000000 -0.000000 0
-0.000055 0.000010 0
-0.000345 0.000379 0
-0.000938 0.000915 0
-0.001864 0.001503 0
-0.003120 0.002074 0
-0.004682 0.002590 0
-0.006515 0.003031 0
-0.008576 0.003393 0
-0.010822 0.003674 0
-0.013206 0.003879 0
-0.015686 0.004012 0
-0.018221 0.004079 0
-0.020772 0.004084 0
-0.023303 0.004031 0
-0.025777 0.003923 0
-0.028162 0.003762 0
-0.030424 0.003548 0
-0.032531 0.003282 0
-0.034452 0.002965 0
-0.036155 0.002598 0
-0.037613 0.002184 0
-0.038797 0.001723 0
-0.039681 0.001221 0
-0.040243 0.000682 0
-0.040465 0.000114 0
-0.040333 -0.000476 0
-0.039839 -0.001077 0
-0.038980 -0.001678 0
-0.037761 -0.002265 0
-0.036197 -0.002824 0
-0.034308 -0.003340 0
-0.032125 -0.003799 0
-0.029687 -0.004185 0
-0.027039 -0.004485 0
-0.024236 -0.004687 0
-0.021338 -0.004783 0
-0.018408 -0.004765 0
-0.015513 -0.004633 0
-0.012720 -0.004386 0
-0.010093 -0.004032 0
-0.007693 -0.003580 0
-0.005571 -0.003047 0
-0.003769 -0.002454 0
-0.002317 -0.001826 0
-0.001224 -0.001196 0
-0.000485 -0.000608 0
-0.000066 -0.000113 0
0.000088 0.000217 0
0.000068 0.000294 0
0.000000 0.000000 0
0.000000 -0.000000 0
-0.000152 0.000260 0
-0.000671 0.000954 0
-0.001592 0.001852 0
-0.002925 0.002809 0
-0.004652 0.003730 0
-0.006743 0.004563 0
-0.009152 0.005280 0
-0.011829 0.005868 0
-0.014723 0.006327 0
-0.017778 0.006661 0
-0.020944 0.006877 0
-0.024170 0.006981 0
-0.027409 0.006981 0
-0.030615 0.006882 0
-0.033744 0.006689 0
-0.036754 0.006404 0
-0.039603 0.006029 0
-0.042252 0.005567 0
-0.044661 0.005019 0
-0.046793 0.004388 0
-0.048612 0.003676 0
-0.050084 0.002889 0
-0.051179 0.002034 0
-0.051870 0.001119 0
-0.052136 0.000157 0
-0.051960 -0.000838 0
-0.051333 -0.001849 0
-0.050254 -0.002858 0
-0.048729 -0.003843 0
-0.046776 -0.004779 0
-0.044421 -0.005644 0
-0.041701 -0.006413 0
-0.038662 -0.007061 0
-0.035359 -0.007568 0
-0.031859 -0.007914 0
-0.028232 -0.008085 0
-0.024555 -0.008070 0
-0.020909 -0.007865 0
-0.017374 -0.007473 0
-0.014028 -0.006905 0
-0.010944 -0.006176 0
-0.008186 -0.005314 0
-0.005806 -0.004352 0
-0.003840 -0.003332 0
-0.002304 -0.002307 0
-0.001194 -0.001343 0
-0.000481 -0.000517 0
-0.000108 0.000070 0
0.000013 0.000296 0
0.000000 -0.000000 0
0.000000 0.000000 0
-0.000252 0.000681 0
-0.001014 0.001820 0
-0.002283 0.003170 0
-0.004041 0.004564 0
-0.006253 0.005892 0
-0.008875 0.007088 0
-0.011853 0.008117 0
-0.015129 0.008963 0
-0.018642 0.009622 0
-0.022331 0.010100 0
-0.026139 0.010404 0
-0.030007 0.010544 0
-0.033880 0.010529 0
-0.037706 0.010367 0
-0.041433 0.010063 0
-0.045012 0.009621 0
-0.048395 0.009046 0
-0.051535 0.008340 0
-0.054387 0.007506 0
-0.056907 0.006549 0
-0.059054 0.005474 0
-0.060789 0.004290 0
-0.062078 0.003007 0
-0.062891 0.001639 0
-0.063203 0.000203 0
-0.062997 -0.001279 0
-0.062263 -0.002783 0
-0.060999 -0.004282 0
-0.059213 -0.005742 0
-0.056925 -0.007132 0
-0.054165 -0.008416 0
-0.050973 -0.009558 0
-0.047403 -0.010526 0
-0.043517 -0.011287 0
-0.039389 -0.011815 0
-0.035101 -0.012087 0
-0.030739 -0.012088 0
-0.026395 -0.011814 0
-0.022161 -0.011267 0
-0.018129 -0.010461 0
-0.014381 -0.009422 0
-0.010994 -0.008185 0
-0.008029 -0.006800 0
-0.005531 -0.005328 0
-0.003524 -0.003842 0
-0.002010 -0.002430 0
-0.000966 -0.001200 0
-0.000339 -0.000276 0
-0.000053 0.000187 0
0.000000 -0.000000 0
0.000000 0.000000 0
-0.000350 0.001275 0
-0.001358 0.002985 0
-0.002979 0.004879 0
-0.005167 0.006778 0
-0.007868 0.008564 0
-0.011020 0.010163 0
-0.014558 0.011533 0
-0.018417 0.012657 0
-0.022527 0.013530 0
-0.026821 0.014159 0
-0.031236 0.014552 0
-0.035706 0.014723 0
-0.040172 0.014681 0
-0.044574 0.014436 0
-0.048856 0.013995 0
-0.052962 0.013366 0
-0.056839 0.012552 0
-0.060434 0.011559 0
-0.063696 0.010390 0
-0.066578 0.009054 0
-0.069033 0.007558 0
-0.071019 0.005913 0
-0.072498 0.004136 0
-0.073437 0.002245 0
-0.073809 0.000264 0
-0.073595 -0.001778 0
-0.072783 -0.003848 0
-0.071371 -0.005908 0
-0.069368 -0.007916 0
-0.066794 -0.009828 0
-0.063681 -0.011596 0
-0.060074 -0.013175 0
-0.056029 -0.014517 0
-0.051616 -0.015581 0
-0.046912 -0.016331 0
-0.042009 -0.016736 0
-0.037001 -0.016776 0
-0.031992 -0.016443 0
-0.027083 -0.015740 0
-0.022377 -0.014685 0
-0.017969 -0.013311 0
-0.013947 -0.011666 0
-0.010384 -0.009815 0
-0.007333 -0.007837 0
-0.004831 -0.005827 0
-0.002887 -0.003901 0
-0.001486 -0.002188 0
-0.000586 -0.000843 0
-0.000121 -0.000044 0
0.000000 -0.000000 0
0.000000 0.000000 0
-0.000445 0.002039 0
-0.001693 0.004448 0
-0.003663 0.006979 0
-0.006278 0.009452 0
-0.009462 0.011744 0
-0.013136 0.013779 0
-0.017225 0.015514 0
-0.021650 0.016931 0
-0.026336 0.018027 0
-0.031211 0.018809 0
-0.036204 0.019289 0
-0.041246 0.019481 0
-0.046271 0.019397 0
-0.051216 0.019051 0
-0.056019 0.018450 0
-0.060621 0.017603 0
-0.064962 0.016517 0
-0.068987 0.015197 0
-0.072641 0.013650 0
-0.075870 0.011886 0
-0.078626 0.009916 0
-0.080863 0.007756 0
-0.082539 0.005425 0
-0.083618 0.002950 0
-0.084071 0.000361 0
-0.083876 -0.002306 0
-0.083021 -0.005008 0
-0.081501 -0.007696 0
-0.079325 -0.010319 0
-0.076513 -0.012818 0
-0.073097 -0.015135 0
-0.069123 -0.017210 0
-0.064651 -0.018985 0
-0.059752 -0.020404 0
-0.054511 -0.021422 0
-0.049024 -0.021998 0
-0.043396 -0.022105 0
-0.037736 -0.021732 0
-0.032160 -0.020882 0
-0.026779 -0.019575 0
-0.021703 -0.017851 0
-0.017031 -0.015771 0
-0.012848 -0.013414 0
-0.009222 -0.010880 0
-0.006199 -0.008288 0
-0.003801 -0.005776 0
-0.002025 -0.003501 0
-0.000838 -0.001642 0
-0.000188 -0.000400 0
0.000000 0.000000 0
0.000000 -0.000000 0
-0.000536 0.002968 0
-0.002015 0.006203 0
-0.004324 0.009464 0
-0.007357 0.012577 0
-0.011013 0.015423 0
-0.015198 0.017926 0
-0.019821 0.020047 0
-0.024796 0.021769 0
-0.030039 0.023092 0
-0.035472 0.024026 0
-0.041018 0.024586 0
-0.046604 0.024789 0
-0.052162 0.024651 0
-0.057624 0.024184 0
-0.062923 0.023400 0
-0.067998 0.022309 0
-0.072785 0.020919 0
-0.077225 0.019237 0
-0.081260 0.017273 0
-0.084834 0.015039 0
-0.087893 0.012550 0
-0.090389 0.009826 0
-0.092277 0.006891 0
-0.093519 0.003777 0
-0.094082 0.000523 0
-0.093941 -0.002828 0
-0.093082 -0.006223 0
-0.091498 -0.009603 0
-0.089195 -0.012904 0
-0.086191 -0.016056 0
-0.082519 -0.018986 0
-0.078223 -0.021621 0
-0.073363 -0.023888 0
-0.068015 -0.025721 0
-0.062267 -0.027058 0
-0.056219 -0.027851 0
-0.049982 -0.028064 0
-0.043677 -0.027679 0
-0.037428 -0.026697 0
-0.031361 -0.025141 0
-0.025597 -0.023059 0
-0.020250 -0.020522 0
-0.015420 -0.017624 0
-0.011190 -0.014485 0
-0.007620 -0.011248 0
-0.004746 -0.008075 0
-0.002576 -0.005151 0
-0.001093 -0.002679 0
-0.000255 -0.000882 0
0.000000 0.000000 0
0.000000 -0.000000 0
-0.000621 0.004054 0
-0.002323 0.008237 0
-0.004958 0.012321 0
-0.008393 0.016141 0
-0.012506 0.019585 0
-0.017185 0.022588 0
-0.022326 0.025113 0
-0.027831 0.027149 0
-0.033610 0.028703 0
-0.039578 0.029787 0
-0.045654 0.030421 0
-0.051763 0.030625 0
-0.057831 0.030417 0
-0.063787 0.029812 0
-0.069564 0.028825 0
-0.075096 0.027466 0
-0.080317 0.025744 0
-0.085166 0.023672 0
-0.089580 0.021258 0
-0.093501 0.018518 0
-0.096874 0.015471 0
-0.099646 0.012140 0
-0.101770 0.008555 0
-0.103203 0.004755 0
-0.103911 0.000783 0
-0.103865 -0.003306 0
-0.103045 -0.007451 0
-0.101444 -0.011583 0
-0.099063 -0.015625 0
-0.095917 -0.019494 0
-0.092035 -0.023104 0
-0.087460 -0.026365 0
-0.082253 -0.029192 0
-0.076488 -0.031501 0
-0.070256 -0.033218 0
-0.063661 -0.034282 0
-0.056823 -0.034647 0
-0.049869 -0.034286 0
-0.042936 -0.033198 0
-0.036161 -0.031406 0
-0.029682 -0.028962 0
-0.023629 -0.025948 0
-0.018119 -0.022474 0
-0.013250 -0.018680 0
-0.009102 -0.014732 0
-0.005725 -0.010820 0
-0.003143 -0.007153 0
-0.001352 -0.003963 0
-0.000322 -0.001493 0
0.000000 0.000000 0
0.000000 -0.000000 0
-0.000702 0.005291 0
-0.002614 0.010539 0
-0.005559 0.015534 0
-0.009379 0.020125 0
-0.013930 0.024215 0
-0.019083 0.027745 0
-0.024719 0.030692 0
-0.030733 0.033053 0
-0.037026 0.034838 0
-0.043507 0.036070 0
-0.050092 0.036771 0
-0.056701 0.036966 0
-0.063259 0.036675 0
-0.069693 0.035918 0
-0.075933 0.034709 0
-0.081910 0.033062 0
-0.087559 0.030988 0
-0.092814 0.028499 0
-0.097611 0.025609 0
-0.101891 0.022334 0
-0.105593 0.018695 0
-0.108664 0.014722 0
-0.111053 0.010448 0
-0.112713 0.005918 0
-0.113606 0.001184 0
-0.113699 -0.003694 0
-0.112969 -0.008644 0
-0.111401 -0.013586 0
-0.108994 -0.018432 0
-0.105756 -0.023084 0
-0.101714 -0.027443 0
-0.096906 -0.031403 0
-0.091390 -0.034861 0
-0.085239 -0.037718 0
-0.078546 -0.039885 0
-0.071419 -0.041284 0
-0.063981 -0.041856 0
-0.056371 -0.041566 0
-0.048735 -0.040405 0
-0.041227 -0.038395 0
-0.034000 -0.035592 0
-0.027202 -0.032086 0
-0.020970 -0.028002 0
-0.015424 -0.023501 0
-0.010661 -0.018773 0
-0.006750 -0.014034 0
-0.003733 -0.009524 0
-0.001619 -0.005501 0
-0.000389 -0.002235 0
0.000000 -0.000000 0
0.000000 0.000000 0
-0.000778 0.006668 0
-0.002888 0.013094 0
-0.006127 0.019086 0
-0.010310 0.024511 0
-0.015276 0.029289 0
-0.020878 0.033377 0
-0.026987 0.036763 0
-0.033485 0.039456 0
-0.040267 0.041477 0
-0.047238 0.042853 0
-0.054309 0.043616 0
-0.061398 0.043792 0
-0.068427 0.043409 0
-0.075323 0.042486 0
-0.082013 0.041042 0
-0.088428 0.039092 0
-0.094500 0.036648 0
-0.100163 0.033724 0
-0.105352 0.030335 0
-0.110003 0.026500 0
-0.114056 0.022245 0
-0.117453 0.017599 0
-0.120140 0.012604 0
-0.122067 0.007308 0
-0.123189 0.001769 0
-0.123471 -0.003943 0
-0.122882 -0.009749 0
-0.121404 -0.015558 0
-0.119026 -0.021270 0
-0.115752 -0.026774 0
-0.111602 -0.031954 0
-0.106609 -0.036689 0
-0.100826 -0.040859 0
-0.094325 -0.044345 0
-0.087195 -0.047039 0
-0.079549 -0.048847 0
-0.071516 -0.049695 0
-0.063240 -0.049532 0
-0.054882 -0.048342 0
-0.046610 -0.046141 0
-0.038597 -0.042987 0
-0.031010 -0.038978 0
-0.024010 -0.034252 0
-0.017740 -0.028990 0
-0.012319 -0.023406 0
-0.007838 -0.017747 0
-0.004356 -0.012285 0
-0.001899 -0.007307 0
-0.000459 -0.003112 0
0.000000 -0.000000 0
0.000000 0.000000 0
-0.000849 0.008179 0
-0.003144 0.015887 0
-0.006656 0.022956 0
-0.011181 0.029275 0
-0.016536 0.034783 0
-0.022561 0.039456 0
-0.029114 0.043299 0
-0.036069 0.046333 0
-0.043315 0.048592 0
-0.050750 0.050112 0
-0.058283 0.050932 0
-0.065830 0.051084 0
-0.073312 0.050600 0
-0.080653 0.049503 0
-0.087781 0.047814 0
-0.094626 0.045549 0
-0.101120 0.042723 0
-0.107195 0.039351 0
-0.112784 0.035449 0
-0.117824 0.031038 0
-0.122250 0.026145 0
-0.126003 0.020805 0
-0.129023 0.015061 0
-0.131258 0.008968 0
-0.132659 0.002588 0
-0.133181 -0.004001 0
-0.132791 -0.010711 0
-0.131460 -0.017443 0
-0.129172 -0.024083 0
-0.125923 -0.030508 0
-0.121722 -0.036586 0
-0.116598 -0.042178 0
-0.110595 -0.047145 0
-0.103782 -0.051349 0
-0.096246 -0.054660 0
-0.088100 -0.056963 0
-0.079476 -0.058165 0
-0.070528 -0.058199 0
-0.061429 -0.057035 0
-0.052363 -0.054680 0
-0.043522 -0.051192 0
-0.035099 -0.046672 0
-0.027279 -0.041272 0
-0.020232 -0.035193 0
-0.014102 -0.028675 0
-0.009006 -0.021997 0
-0.005024 -0.015463 0
-0.002198 -0.009398 0
-0.000534 -0.004133 0
0.000000 -0.000000 0
0.000000 -0.000000 0
-0.000914 0.009812 0
-0.003380 0.018901 0
-0.007145 0.027123 0
-0.011986 0.034391 0
-0.017703 0.040669 0
-0.024121 0.045955 0
-0.031088 0.050271 0
-0.038471 0.053656 0
-0.046150 0.056157 0
-0.054022 0.057822 0
-0.061991 0.058696 0
-0.069973 0.058821 0
-0.077886 0.058231 0
-0.085656 0.056955 0
-0.093209 0.055016 0
-0.100477 0.052431 0
-0.107389 0.049216 0
-0.113878 0.045388 0
-0.119878 0.040964 0
-0.125322 0.035966 0
-0.130144 0.030424 0
-0.134282 0.024373 0
-0.137673 0.017860 0
-0.140259 0.010943 0
-0.141987 0.003692 0
-0.142805 -0.003811 0
-0.142671 -0.011470 0
-0.141551 -0.019177 0
-0.139417 -0.026807 0
-0.136257 -0.034224 0
-0.132070 -0.041279 0
-0.126873 -0.047816 0
-0.120706 -0.053674 0
-0.113628 -0.058694 0
-0.105723 -0.062721 0
-0.097102 -0.065618 0
-0.087900 -0.067266 0
-0.078279 -0.067579 0
-0.068423 -0.066507 0
-0.058533 -0.064048 0
-0.048825 -0.060251 0
-0.039515 -0.055220 0
-0.030818 -0.049119 0
-0.022935 -0.042167 0
-0.016039 -0.034632 0
-0.010276 -0.026826 0
-0.005750 -0.019093 0
-0.002524 -0.011797 0
-0.000615 -0.005310 0
0.000000 0.000000 0
0.000000 -0.000000 0
-0.000974 0.011559 0
-0.003595 0.022118 0
-0.007591 0.031562 0
-0.012720 0.039832 0
-0.018768 0.046918 0
-0.025547 0.052842 0
-0.032895 0.057648 0
-0.040672 0.061395 0
-0.048753 0.064143 0
-0.057030 0.065953 0
-0.065407 0.066882 0
-0.073797 0.066979 0
-0.082119 0.066283 0
-0.090297 0.064826 0
-0.098261 0.062635 0
-0.105940 0.059729 0
-0.113265 0.056125 0
-0.120170 0.051840 0
-0.126587 0.046892 0
-0.132448 0.041304 0
-0.137688 0.035105 0
-0.142238 0.028334 0
-0.146036 0.021039 0
-0.149016 0.013281 0
-0.151119 0.005134 0
-0.152288 -0.003316 0
-0.152472 -0.011965 0
-0.151627 -0.020697 0
-0.149716 -0.029377 0
-0.146714 -0.037856 0
-0.142609 -0.045969 0
-0.137409 -0.053542 0
-0.131141 -0.060391 0
-0.123854 -0.066332 0
-0.115627 -0.071186 0
-0.106566 -0.074787 0
-0.096809 -0.076988 0
-0.086522 -0.077676 0
-0.075900 -0.076780 0
-0.065163 -0.074279 0
-0.054548 -0.070210 0
-0.044301 -0.064678 0
-0.034668 -0.057853 0
-0.025884 -0.049972 0
-0.018159 -0.041334 0
-0.011669 -0.032286 0
-0.006548 -0.023215 0
-0.002882 -0.014533 0
-0.000705 -0.006657 0
0.000000 0.000000 0
0.000000 -0.000000 0
-0.001027 0.013407 0
-0.003787 0.025519 0
-0.007990 0.036248 0
-0.013378 0.045568 0
-0.019723 0.053496 0
-0.026828 0.060083 0
-0.034522 0.065396 0
-0.042656 0.069514 0
-0.051103 0.072516 0
-0.059752 0.074476 0
-0.068505 0.075463 0
-0.077273 0.075532 0
-0.085976 0.074732 0
-0.094540 0.073097 0
-0.102894 0.070658 0
-0.110970 0.067435 0
-0.118699 0.063447 0
-0.126015 0.058710 0
-0.132852 0.053242 0
-0.139140 0.047067 0
-0.144813 0.040214 0
-0.149801 0.032721 0
-0.154036 0.024637 0
-0.157449 0.016026 0
-0.159975 0.006964 0
-0.161548 -0.002458 0
-0.162111 -0.012131 0
-0.161607 -0.021933 0
-0.159990 -0.031721 0
-0.157220 -0.041330 0
-0.153276 -0.050584 0
-0.148147 -0.059285 0
-0.141850 -0.067230 0
-0.134422 -0.074207 0
-0.125933 -0.080009 0
-0.116481 -0.084436 0
-0.106203 -0.087310 0
-0.095269 -0.088488 0
-0.083883 -0.087866 0
-0.072282 -0.085401 0
-0.060727 -0.081113 0
-0.049494 -0.075100 0
-0.038866 -0.067536 0
-0.029114 -0.058676 0
-0.020489 -0.048847 0
-0.013206 -0.038436 0
-0.007432 -0.027880 0
-0.003281 -0.017641 0
-0.000805 -0.008192 0
0.000000 0.000000 0
0.000000 0.000000 0
-0.001073 0.015345 0
-0.003955 0.029082 0
-0.008339 0.041153 0
-0.013955 0.051565 0
-0.020562 0.060368 0
-0.027955 0.067640 0
-0.035954 0.073476 0
-0.044407 0.077976 0
-0.053181 0.081239 0
-0.062164 0.083355 0
-0.071255 0.084403 0
-0.080367 0.084450 0
-0.089420 0.083550 0
-0.098341 0.081745 0
-0.107060 0.079065 0
-0.115512 0.075534 0
-0.123629 0.071171 0
-0.131347 0.065993 0
-0.138600 0.060017 0
-0.145318 0.053265 0
-0.151435 0.045766 0
-0.156878 0.037557 0
-0.161576 0.028688 0
-0.165458 0.019220 0
-0.168448 0.009233 0
-0.170477 -0.001180 0
-0.171476 -0.011906 0
-0.171380 -0.022818 0
-0.170128 -0.033764 0
-0.167670 -0.044570 0
-0.163967 -0.055042 0
-0.158995 -0.064967 0
-0.152752 -0.074116 0
-0.145264 -0.082249 0
-0.136585 -0.089127 0
-0.126807 -0.094516 0
-0.116058 -0.098200 0
-0.104511 -0.099996 0
-0.092377 -0.099767 0
-0.079908 -0.097435 0
-0.067388 -0.092998 0
-0.055127 -0.086539 0
-0.043444 -0.078233 0
-0.032656 -0.068349 0
-0.023058 -0.057241 0
-0.014908 -0.045343 0
-0.008416 -0.033141 0
-0.003726 -0.021160 0
-0.000918 -0.009938 0
0.000000 0.000000 0
0.000000 0.000000 0
-0.001112 0.017362 0
-0.004097 0.032785 0
-0.008635 0.046248 0
-0.014445 0.057791 0
-0.021277 0.067496 0
-0.028917 0.075475 0
-0.037180 0.081848 0
-0.045908 0.086741 0
-0.054967 0.090272 0
-0.064240 0.092550 0
-0.073629 0.093666 0
-0.083045 0.093697 0
-0.092411 0.092706 0
-0.101654 0.090738 0
-0.110708 0.087829 0
-0.119507 0.084004 0
-0.127990 0.079282 0
-0.136091 0.073680 0
-0.143746 0.067213 0
-0.150889 0.059902 0
-0.157451 0.051773 0
-0.163359 0.042862 0
-0.168539 0.033217 0
-0.172915 0.022898 0
-0.176407 0.011984 0
-0.178938 0.000570 0
-0.180427 -0.011229 0
-0.180802 -0.023281 0
-0.179988 -0.035430 0
-0.177922 -0.047492 0
-0.174546 -0.059259 0
-0.169822 -0.070500 0
-0.163729 -0.080960 0
-0.156274 -0.090374 0
-0.147495 -0.098466 0
-0.137471 -0.104963 0
-0.126321 -0.109607 0
-0.114213 -0.112169 0
-0.101364 -0.112469 0
-0.088038 -0.110389 0
-0.074543 -0.105894 0
-0.061219 -0.099044 0
-0.048429 -0.090007 0
-0.036536 -0.079063 0
-0.025888 -0.066594 0
-0.016794 -0.053078 0
-0.009511 -0.039062 0
-0.004225 -0.025139 0
-0.001045 -0.011918 0
0.000000 0.000000 0
0.000000 -0.000000 0
-0.001144 0.019442 0
-0.004212 0.036605 0
-0.008876 0.051501 0
-0.014844 0.064207 0
-0.021861 0.074840 0
-0.029705 0.083543 0
-0.038186 0.090467 0
-0.047144 0.095763 0
-0.056440 0.099571 0
-0.065958 0.102017 0
-0.075598 0.103208 0
-0.085274 0.103232 0
-0.094908 0.102159 0
-0.104431 0.100041 0
-0.113780 0.096918 0