# vtk DataFile Version 2.0
generated by CFD-lab course output (written by Tobias Neckel) 
ASCII

DATASET STRUCTURED_GRID
DIMENSIONS  51 51 1 
POINTS 2601 float

0.000000 0.000000 0
0.020000 0.000000 0
0.040000 0.000000 0
0.060000 0.000000 0
0.080000 0.000000 0
0.100000 0.000000 0
0.120000 0.000000 0
0.140000 0.000000 0
0.160000 0.000000 0
0.180000 0.000000 0
0.200000 0.000000 0
0.220000 0.000000 0
0.240000 0.000000 0
0.260000 0.000000 0
0.280000 0.000000 0
0.300000 0.000000 0
0.320000 0.000000 0
0.340000 0.000000 0
0.360000 0.000000 0
0.380000 0.000000 0
0.400000 0.000000 0
0.420000 0.000000 0
0.440000 0.000000 0
0.460000 0.000000 0
0.480000 0.000000 0
0.500000 0.000000 0
0.520000 0.000000 0
0.540000 0.000000 0
0.560000 0.000000 0
0.580000 0.000000 0
0.600000 0.000000 0
0.620000 0.000000 0
0.640000 0.000000 0
0.660000 0.000000 0
0.680000 0.000000 0
0.700000 0.000000 0
0.720000 0.000000 0
0.740000 0.000000 0
0.760000 0.000000 0
0.780000 0.000000 0
0.800000 0.000000 0
0.820000 0.000000 0
0.840000 0.000000 0
0.860000 0.000000 0
0.880000 0.000000 0
0.900000 0.000000 0
0.920000 0.000000 0
0.940000 0.000000 0
0.960000 0.000000 0
0.980000 0.000000 0
1.000000 0.000000 0
0.000000 0.020000 0
0.020000 0.020000 0
0.040000 0.020000 0
0.060000 0.020000 0
0.080000 0.020000 0
0.100000 0.020000 0
0.120000 0.020000 0
0.140000 0.020000 0
0.160000 0.020000 0
0.180000 0.020000 0
0.200000 0.020000 0
0.220000 0.020000 0
0.240000 0.020000 0
0.260000 0.020000 0
0.280000 0.020000 0
0.300000 0.020000 0
0.320000 0.020000 0
0.340000 0.020000 0
0.360000 0.020000 0
0.380000 0.020000 0
0.400000 0.020000 0
0.420000 0.020000 0
0.440000 0.020000 0
0.460000 0.020000 0
0.480000 0.020000 0
0.500000 0.020000 0
0.520000 0.020000 0
0.540000 0.020000 0
0.560000 0.020000 0
0.580000 0.020000 0
0.600000 0.020000 0
0.620000 0.020000 0
0.640000 0.020000 0
0.660000 0.020000 0
0.680000 0.020000 0
0.700000 0.020000 0
0.720000 0.020000 0
0.740000 0.020000 0
0.760000 0.020000 0
0.780000 0.020000 0
0.800000 0.020000 0
0.820000 0.020000 0
0.840000 0.020000 0
0.860000 0.020000 0
0.880000 0.020000 0
0.900000 0.020000 0
0.920000 0.020000 0
0.940000 0.020000 0
0.960000 0.020000 0
0.980000 0.020000 0
1.000000 0.020000 0
0.000000 0.040000 0
0.020000 0.040000 0
0.040000 0.040000 0
0.060000 0.040000 0
0.080000 0.040000 0
0.100000 0.040000 0
0.120000 0.040000 0
0.140000 0.040000 0
0.160000 0.040000 0
0.180000 0.040000 0
0.200000 0.040000 0
0.220000 0.040000 0
0.240000 0.040000 0
0.260000 0.040000 0
0.280000 0.040000 0
0.300000 0.040000 0
0.320000 0.040000 0
0.340000 0.040000 0
0.360000 0.040000 0
0.380000 0.040000 0
0.400000 0.040000 0
0.420000 0.040000 0
0.440000 0.040000 0
0.460000 0.040000 0
0.480000 0.040000 0
0.500000 0.040000 0
0.520000 0.040000 0
0.540000 0.040000 0
0.560000 0.040000 0
0.580000 0.040000 0
0.600000 0.040000 0
0.620000 0.040000 0
0.640000 0.040000 0
0.660000 0.040000 0
0.680000 0.040000 0
0.700000 0.040000 0
0.720000 0.040000 0
0.740000 0.040000 0
0.760000 0.040000 0
0.780000 0.040000 0
0.800000 0.040000 0
0.820000 0.040000 0
0.840000 0.040000 0
0.860000 0.040000 0
0.880000 0.040000 0
0.900000 0.040000 0
0.920000 0.040000 0
0.940000 0.040000 0
0.960000 0.040000 0
0.980000 0.040000 0
1.000000 0.040000 0
0.000000 0.060000 0
0.020000 0.060000 0
0.040000 0.060000 0
0.060000 0.060000 0
0.080000 0.060000 0
0.100000 0.060000 0
0.120000 0.060000 0
0.140000 0.060000 0
0.160000 0.060000 0
0.180000 0.060000 0
0.200000 0.060000 0
0.220000 0.060000 0
0.240000 0.060000 0
0.260000 0.060000 0
0.280000 0.060000 0
0.300000 0.060000 0
0.320000 0.060000 0
0.340000 0.060000 0
0.360000 0.060000 0
0.380000 0.060000 0
0.400000 0.060000 0
0.420000 0.060000 0
0.440000 0.060000 0
0.460000 0.060000 0
0.480000 0.060000 0
0.500000 0.060000 0
0.520000 0.060000 0
0.540000 0.060000 0
0.560000 0.060000 0
0.580000 0.060000 0
0.600000 0.060000 0
0.620000 0.060000 0
0.640000 0.060000 0
0.660000 0.060000 0
0.680000 0.060000 0
0.700000 0.060000 0
0.720000 0.060000 0
0.740000 0.060000 0
0.760000 0.060000 0
0.780000 0.060000 0
0.800000 0.060000 0
0.820000 0.060000 0
0.840000 0.060000 0
0.860000 0.060000 0
0.880000 0.060000 0
0.900000 0.060000 0
0.920000 0.060000 0
0.940000 0.060000 0
0.960000 0.060000 0
0.980000 0.060000 0
1.000000 0.060000 0
0.000000 0.080000 0
0.020000 0.080000 0
0.040000 0.080000 0
0.060000 0.080000 0
0.080000 0.080000 0
0.100000 0.080000 0
0.120000 0.080000 0
0.140000 0.080000 0
0.160000 0.080000 0
0.180000 0.080000 0
0.200000 0.080000 0
0.220000 0.080000 0
0.240000 0.080000 0
0.260000 0.080000 0
0.280000 0.080000 0
0.300000 0.080000 0
0.320000 0.080000 0
0.340000 0.080000 0
0.360000 0.080000 0
0.380000 0.080000 0
0.400000 0.080000 0
0.420000 0.080000 0
0.440000 0.080000 0
0.460000 0.080000 0
0.480000 0.080000 0
0.500000 0.080000 0
0.520000 0.080000 0
0.540000 0.080000 0
0.560000 0.080000 0
0.580000 0.080000 0
0.600000 0.080000 0
0.620000 0.080000 0
0.640000 0.080000 0
0.660000 0.080000 0
0.680000 0.080000 0
0.700000 0.080000 0
0.720000 0.080000 0
0.740000 0.080000 0
0.760000 0.080000 0
0.780000 0.080000 0
0.800000 0.080000 0
0.820000 0.080000 0
0.840000 0.080000 0
0.860000 0.080000 0
0.880000 0.080000 0
0.900000 0.080000 0
0.920000 0.080000 0
0.940000 0.080000 0
0.960000 0.080000 0
0.980000 0.080000 0
1.000000 0.080000 0
0.000000 0.100000 0
0.020000 0.100000 0
0.040000 0.100000 0
0.060000 0.100000 0
0.080000 0.100000 0
0.100000 0.100000 0
0.120000 0.100000 0
0.140000 0.100000 0
0.160000 0.100000 0
0.180000 0.100000 0
0.200000 0.100000 0
0.220000 0.100000 0
0.240000 0.100000 0
0.260000 0.100000 0
0.280000 0.100000 0
0.300000 0.100000 0
0.320000 0.100000 0
0.340000 0.100000 0
0.360000 0.100000 0
0.380000 0.100000 0
0.400000 0.100000 0
0.420000 0.100000 0
0.440000 0.100000 0
0.460000 0.100000 0
0.480000 0.100000 0
0.500000 0.100000 0
0.520000 0.100000 0
0.540000 0.100000 0
0.560000 0.100000 0
0.580000 0.100000 0
0.600000 0.100000 0
0.620000 0.100000 0
0.640000 0.100000 0
0.660000 0.100000 0
0.680000 0.100000 0
0.700000 0.100000 0
0.720000 0.100000 0
0.740000 0.100000 0
0.760000 0.100000 0
0.780000 0.100000 0
0.800000 0.100000 0
0.820000 0.100000 0
0.840000 0.100000 0
0.860000 0.100000 0
0.880000 0.100000 0
0.900000 0.100000 0
0.920000 0.100000 0
0.940000 0.100000 0
0.960000 0.100000 0
0.980000 0.100000 0
1.000000 0.100000 0
0.000000 0.120000 0
0.020000 0.120000 0
0.040000 0.120000 0
0.060000 0.120000 0
0.080000 0.120000 0
0.100000 0.120000 0
0.120000 0.120000 0
0.140000 0.120000 0
0.160000 0.120000 0
0.180000 0.120000 0
0.200000 0.120000 0
0.220000 0.120000 0
0.240000 0.120000 0
0.260000 0.120000 0
0.280000 0.120000 0
0.300000 0.120000 0
0.320000 0.120000 0
0.340000 0.120000 0
0.360000 0.120000 0
0.380000 0.120000 0
0.400000 0.120000 0
0.420000 0.120000 0
0.440000 0.120000 0
0.460000 0.120000 0
0.480000 0.120000 0
0.500000 0.120000 0
0.520000 0.120000 0
0.540000 0.120000 0
0.560000 0.120000 0
0.580000 0.120000 0
0.600000 0.120000 0
0.620000 0.120000 0
0.640000 0.120000 0
0.660000 0.120000 0
0.680000 0.120000 0
0.700000 0.120000 0
0.720000 0.120000 0
0.740000 0.120000 0
0.760000 0.120000 0
0.780000 0.120000 0
0.800000 0.120000 0
0.820000 0.120000 0
0.840000 0.120000 0
0.860000 0.120000 0
0.880000 0.120000 0
0.900000 0.120000 0
0.920000 0.120000 0
0.940000 0.120000 0
0.960000 0.120000 0
0.980000 0.120000 0
1.000000 0.120000 0
0.000000 0.140000 0
0.020000 0.140000 0
0.040000 0.140000 0
0.060000 0.140000 0
0.080000 0.140000 0
0.100000 0.140000 0
0.120000 0.140000 0
0.140000 0.140000 0
0.160000 0.140000 0
0.180000 0.140000 0
0.200000 0.140000 0
0.220000 0.140000 0
0.240000 0.140000 0
0.260000 0.140000 0
0.280000 0.140000 0
0.300000 0.140000 0
0.320000 0.140000 0
0.340000 0.140000 0
0.360000 0.140000 0
0.380000 0.140000 0
0.400000 0.140000 0
0.420000 0.140000 0
0.440000 0.140000 0
0.460000 0.140000 0
0.480000 0.140000 0
0.500000 0.140000 0
0.520000 0.140000 0
0.540000 0.140000 0
0.560000 0.140000 0
0.580000 0.140000 0
0.600000 0.140000 0
0.620000 0.140000 0
0.640000 0.140000 0
0.660000 0.140000 0
0.680000 0.140000 0
0.700000 0.140000 0
0.720000 0.140000 0
0.740000 0.140000 0
0.760000 0.140000 0
0.780000 0.140000 0
0.800000 0.140000 0
0.820000 0.140000 0
0.840000 0.140000 0
0.860000 0.140000 0
0.880000 0.140000 0
0.900000 0.140000 0
0.920000 0.140000 0
0.940000 0.140000 0
0.960000 0.140000 0
0.980000 0.140000 0
1.000000 0.140000 0
0.000000 0.160000 0
0.020000 0.160000 0
0.040000 0.160000 0
0.060000 0.160000 0
0.080000 0.160000 0
0.100000 0.160000 0
0.120000 0.160000 0
0.140000 0.160000 0
0.160000 0.160000 0
0.180000 0.160000 0
0.200000 0.160000 0
0.220000 0.160000 0
0.240000 0.160000 0
0.260000 0.160000 0
0.280000 0.160000 0
0.300000 0.160000 0
0.320000 0.160000 0
0.340000 0.160000 0
0.360000 0.160000 0
0.380000 0.160000 0
0.400000 0.160000 0
0.420000 0.160000 0
0.440000 0.160000 0
0.460000 0.160000 0
0.480000 0.160000 0
0.500000 0.160000 0
0.520000 0.160000 0
0.540000 0.160000 0
0.560000 0.160000 0
0.580000 0.160000 0
0.600000 0.160000 0
0.620000 0.160000 0
0.640000 0.160000 0
0.660000 0.160000 0
0.680000 0.160000 0
0.700000 0.160000 0
0.720000 0.160000 0
0.740000 0.160000 0
0.760000 0.160000 0
0.780000 0.160000 0
0.800000 0.160000 0
0.820000 0.160000 0
0.840000 0.160000 0
0.860000 0.160000 0
0.880000 0.160000 0
0.900000 0.160000 0
0.920000 0.160000 0
0.940000 0.160000 0
0.960000 0.160000 0
0.980000 0.160000 0
1.000000 0.160000 0
0.000000 0.180000 0
0.020000 0.180000 0
0.040000 0.180000 0
0.060000 0.180000 0
0.080000 0.180000 0
0.100000 0.180000 0
0.120000 0.180000 0
0.140000 0.180000 0
0.160000 0.180000 0
0.180000 0.180000 0
0.200000 0.180000 0
0.220000 0.180000 0
0.240000 0.180000 0
0.260000 0.180000 0
0.280000 0.180000 0
0.300000 0.180000 0
0.320000 0.180000 0
0.340000 0.180000 0
0.360000 0.180000 0
0.380000 0.180000 0
0.400000 0.180000 0
0.420000 0.180000 0
0.440000 0.180000 0
0.460000 0.180000 0
0.480000 0.180000 0
0.500000 0.180000 0
0.520000 0.180000 0
0.540000 0.180000 0
0.560000 0.180000 0
0.580000 0.180000 0
0.600000 0.180000 0
0.620000 0.180000 0
[...]
POINT_DATA 2601 

VECTORS velocity float
0.000000 0.000000 0
0.000000 0.000000 0
0.000000 0.000000 0
0.000000 0.000000 0
0.000000 0.000000 0
0.000000 0.000000 0
0.000000 0.000000 0
0.000000 0.000000 0
0.000000 0.000000 0
0.000000 0.000000 0
0.000000 0.000000 0
0.000000 0.000000 0
0.000000 0.000000 0
0.000000 0.000000 0
0.000000 0.000000 0
0.000000 0.000000 0
0.000000 0.000000 0
0.000000 0.000000 0
0.000000 0.000000 0
0.000000 0.000000 0
0.000000 0.000000 0
-0.000000 0.000000 0
-0.000000 0.000000 0
0.000000 0.000000 0
0.000000 0.000000 0
0.000000 0.000000 0
-0.000000 0.000000 0
-0.000000 0.000000 0
-0.000000 0.000000 0
-0.000000 0.000000 0
0.000000 0.000000 0
0.000000 0.000000 0
0.000000 0.000000 0
0.000000 0.000000 0
0.000000 0.000000 0
-0.000000 0.000000 0
-0.000000 0.000000 0
-0.000000 0.000000 0
-0.000000 0.000000 0
0.000000 0.000000 0
0.000000 0.000000 0
0.000000 0.000000 0
0.000000 0.000000 0
0.000000 0.000000 0
0.000000 0.000000 0
0.000000 0.000000 0
0.000000 0.000000 0
0.000000 0.000000 0
0.000000 0.000000 0
0.000000 0.000000 0
0.000000 0.000000 0
0.000000 0.000000 0
-0.048831 -0.028613 0
-0.087161 -0.052787 0
-0.110998 -0.070485 0
-0.124757 -0.083451 0
-0.133601 -0.094216 0
-0.140426 -0.104363 0
-0.146427 -0.114590 0
-0.152008 -0.125131 0
-0.157271 -0.136027 0
-0.162217 -0.147251 0
-0.166818 -0.158746 0
-0.171037 -0.170442 0
-0.174837 -0.182261 0
-0.178180 -0.194116 0
-0.181030 -0.205911 0
-0.183354 -0.217539 0
-0.185120 -0.228886 0
-0.186295 -0.239825 0
-0.186850 -0.250219 0
-0.186756 -0.259925 0
-0.185988 -0.268784 0
-0.184521 -0.276633 0
-0.182332 -0.283299 0
-0.179401 -0.288604 0
-0.175713 -0.292366 0
-0.171256 -0.294407 0
-0.166024 -0.294555 0
-0.160023 -0.292653 0
-0.153264 -0.288572 0
-0.145777 -0.282217 0
-0.137606 -0.273547 0
-0.128812 -0.262579 0
-0.119483 -0.249411 0
-0.109728 -0.234226 0
-0.099679 -0.217297 0
-0.089492 -0.198985 0
-0.079338 -0.179724 0
-0.069395 -0.160000 0
-0.059838 -0.140309 0
-0.050824 -0.121128 0
-0.042484 -0.102875 0
-0.034908 -0.085878 0
-0.028145 -0.070357 0
-0.022202 -0.056421 0
-0.017046 -0.044071 0
-0.012613 -0.033215 0
-0.008814 -0.023677 0
-0.005538 -0.015209 0
-0.002655 -0.007475 0
0.000000 0.000000 0
0.000000 0.000000 0
-0.093517 -0.053996 0
-0.161033 -0.096219 0
-0.198126 -0.123974 0
-0.217189 -0.142806 0
-0.228557 -0.158036 0
-0.236971 -0.172261 0
-0.244119 -0.186395 0
-0.250513 -0.200673 0
-0.256279 -0.215096 0
-0.261429 -0.229598 0
-0.265949 -0.244098 0
-0.269816 -0.258509 0
-0.273011 -0.272743 0
-0.275518 -0.286711 0
-0.277322 -0.300323 0
-0.278412 -0.313488 0
-0.278776 -0.326111 0
-0.278406 -0.338095 0
-0.277294 -0.349336 0
-0.275431 -0.359731 0
-0.272810 -0.369165 0
-0.269422 -0.377521 0
-0.265259 -0.384670 0
-0.260313 -0.390477 0
-0.254575 -0.394796 0
-0.248036 -0.397472 0
-0.240689 -0.398342 0
-0.232530 -0.397235 0
-0.223558 -0.393981 0
-0.213782 -0.388413 0
-0.203216 -0.380378 0
-0.191893 -0.369754 0
-0.179860 -0.356460 0
-0.167188 -0.340485 0
-0.153977 -0.321903 0
-0.140358 -0.300897 0
-0.126495 -0.277774 0
-0.112582 -0.252961 0
-0.098836 -0.226997 0
-0.085483 -0.200493 0
-0.072742 -0.174092 0
-0.060804 -0.148405 0
-0.049818 -0.123958 0
-0.039879 -0.101151 0
-0.031019 -0.080222 0
-0.023210 -0.061240 0
-0.016369 -0.044102 0
-0.010359 -0.028533 0
-0.004989 -0.014071 0
0.000000 0.000000 0
0.000000 0.000000 0
-0.127747 -0.071175 0
-0.211468 -0.122394 0
-0.251196 -0.152390 0
-0.268892 -0.171326 0
-0.278476 -0.186432 0
-0.285203 -0.200538 0
-0.290689 -0.214468 0
-0.295381 -0.228390 0
-0.299395 -0.242290 0
-0.302762 -0.256117 0
-0.305489 -0.269811 0
-0.307583 -0.283317 0
-0.309045 -0.296578 0
-0.309880 -0.309539 0
-0.310090 -0.322143 0
-0.309676 -0.334329 0
-0.308637 -0.346033 0
-0.306969 -0.357186 0
-0.304669 -0.367714 0
-0.301731 -0.377534 0
-0.298146 -0.386556 0
-0.293904 -0.394683 0
-0.288995 -0.401806 0
-0.283407 -0.407805 0
-0.277127 -0.412554 0
-0.270144 -0.415910 0
-0.262446 -0.417725 0
-0.254025 -0.417841 0
-0.244877 -0.416092 0
-0.235002 -0.412314 0
-0.224408 -0.406343 0
-0.213110 -0.398025 0
-0.201135 -0.387227 0
-0.188524 -0.373850 0
-0.175333 -0.357842 0
-0.161641 -0.339226 0
-0.147553 -0.318112 0
-0.133205 -0.294722 0
-0.118760 -0.269396 0
-0.104411 -0.242592 0
-0.090365 -0.214863 0
-0.076834 -0.186822 0
-0.064014 -0.159081 0
-0.052066 -0.132197 0
-0.041099 -0.106609 0
-0.031159 -0.082593 0
-0.022222 -0.060220 0
-0.014188 -0.039336 0
-0.006875 -0.019517 0
0.000000 0.000000 0
0.000000 0.000000 0
-0.149788 -0.079401 0
-0.240210 -0.132950 0
-0.278119 -0.161699 0
-0.293084 -0.179140 0
-0.300601 -0.193172 0
-0.305725 -0.206442 0
-0.309842 -0.219621 0
-0.313306 -0.232829 0
-0.316208 -0.246050 0
-0.318573 -0.259245 0
-0.320410 -0.272369 0
-0.321722 -0.285382 0
-0.322509 -0.298238 0
-0.322768 -0.310890 0
-0.322492 -0.323286 0
-0.321675 -0.335369 0
-0.320306 -0.347077 0
-0.318372 -0.358338 0
-0.315860 -0.369077 0
-0.312754 -0.379208 0
-0.309037 -0.388638 0
-0.304693 -0.397264 0
-0.299705 -0.404975 0
-0.294054 -0.411649 0
-0.287724 -0.417154 0
-0.280699 -0.421348 0
-0.272967 -0.424081 0
-0.264517 -0.425194 0
-0.255345 -0.424526 0
-0.245453 -0.421913 0
-0.234852 -0.417197 0
-0.223561 -0.410229 0
-0.211611 -0.400877 0
-0.199046 -0.389037 0
-0.185921 -0.374641 0
-0.172305 -0.357673 0
-0.158286 -0.338181 0
-0.143971 -0.316296 0
-0.129484 -0.292238 0
-0.114973 -0.266325 0
-0.100606 -0.238972 0
-0.086559 -0.210671 0
-0.073011 -0.181962 0
-0.060128 -0.153381 0
-0.048041 -0.125411 0
-0.036837 -0.098411 0
-0.026536 -0.072571 0
-0.017082 -0.047844 0
-0.008325 -0.023894 0
0.000000 0.000000 0
0.000000 -0.000000 0
-0.162611 -0.081156 0
-0.255352 -0.133721 0
-0.291143 -0.160602 0
-0.304280 -0.176808 0
-0.310695 -0.190140 0
-0.315112 -0.202965 0
-0.318718 -0.215829 0
-0.321794 -0.228812 0
-0.324401 -0.241889 0
-0.326550 -0.255021 0
-0.328237 -0.268166 0
-0.329456 -0.281279 0
-0.330197 -0.294313 0
-0.330446 -0.307219 0
-0.330192 -0.319940 0
-0.329417 -0.332415 0
-0.328106 -0.344577 0
-0.326241 -0.356352 0
-0.323804 -0.367659 0
-0.320774 -0.378410 0
-0.317134 -0.388509 0
-0.312862 -0.397850 0
-0.307940 -0.406320 0
-0.302349 -0.413796 0
-0.296069 -0.420144 0
-0.289084 -0.425220 0
-0.281379 -0.428871 0
-0.272940 -0.430935 0
-0.263761 -0.431245 0
-0.253842 -0.429632 0
-0.243192 -0.425931 0
-0.231831 -0.419986 0
-0.219792 -0.411659 0
-0.207122 -0.400838 0
-0.193880 -0.387444 0
-0.180140 -0.371450 0
-0.165990 -0.352885 0
-0.151533 -0.331850 0
-0.136887 -0.308520 0
-0.122185 -0.283154 0
-0.107569 -0.256092 0
-0.093192 -0.227742 0
-0.079208 -0.198563 0
-0.065764 -0.169031 0
-0.052985 -0.139591 0
-0.040961 -0.110608 0
-0.029730 -0.082301 0
-0.019260 -0.054680 0
-0.009429 -0.027469 0
0.000000 0.000000 0
0.000000 -0.000000 0
-0.170104 -0.079144 0
-0.263762 -0.129360 0
-0.298208 -0.154579 0
-0.310463 -0.170030 0
-0.316511 -0.183087 0
-0.320805 -0.195845 0
-0.324400 -0.208751 0
-0.327524 -0.221852 0
-0.330217 -0.235115 0
-0.332477 -0.248495 0
-0.334295 -0.261945 0
-0.335655 -0.275417 0
-0.336543 -0.288862 0
-0.336943 -0.302224 0
-0.336838 -0.315444 0
-0.336211 -0.328460 0
-0.335044 -0.341201 0
-0.333316 -0.353593 0
-0.331010 -0.365552 0
-0.328104 -0.376990 0
-0.324580 -0.387811 0
-0.320416 -0.397908 0
-0.315593 -0.407170 0
-0.310091 -0.415472 0
-0.303889 -0.422681 0
-0.296969 -0.428652 0
-0.289314 -0.433229 0
-0.280908 -0.436248 0
-0.271740 -0.437534 0
-0.261806 -0.436911 0
-0.251111 -0.434201 0
-0.239672 -0.429237 0
-0.227521 -0.421865 0
-0.214702 -0.411956 0
-0.201277 -0.399414 0
-0.187322 -0.384189 0
-0.172929 -0.366294 0
-0.158203 -0.345805 0
-0.143266 -0.322877 0
-0.128247 -0.297740 0
-0.113285 -0.270699 0
-0.098526 -0.242124 0
-0.084111 -0.212430 0
-0.070175 -0.182049 0
-0.056832 -0.151393 0
-0.044167 -0.120802 0
-0.032218 -0.090494 0
-0.020962 -0.060491 0
-0.010295 -0.030540 0
0.000000 0.000000 0
0.000000 -0.000000 0
-0.175015 -0.075118 0
-0.269306 -0.122421 0
-0.303047 -0.146220 0
-0.314968 -0.161233 0
-0.321016 -0.174268 0
-0.325451 -0.187170 0
-0.329238 -0.200305 0
-0.332571 -0.213691 0
-0.335477 -0.227288 0
-0.337949 -0.241045 0
-0.339972 -0.254911 0
-0.341532 -0.268836 0
-0.342611 -0.282768 0
-0.343194 -0.296649 0
-0.343264 -0.310420 0
-0.342803 -0.324016 0
-0.341794 -0.337368 0
-0.340218 -0.350400 0
-0.338055 -0.363029 0
-0.335286 -0.375169 0
-0.331890 -0.386722 0
-0.327846 -0.397584 0
-0.323134 -0.407643 0
-0.317734 -0.416776 0
-0.311623 -0.424851 0
-0.304782 -0.431722 0
-0.297191 -0.437234 0
-0.288832 -0.441218 0
-0.279691 -0.443495 0
-0.269756 -0.443879 0
-0.259028 -0.442181 0
-0.247518 -0.438217 0
-0.235253 -0.431818 0
-0.222278 -0.422833 0
-0.208652 -0.411142 0
-0.194452 -0.396670 0
-0.179772 -0.379401 0
-0.164720 -0.359389 0
-0.149419 -0.336761 0
-0.134003 -0.311725 0
-0.118615 -0.284564 0
-0.103400 -0.255628 0
-0.088500 -0.225312 0
-0.074047 -0.194030 0
-0.060151 -0.162176 0
-0.046893 -0.130076 0
-0.034311 -0.097937 0
-0.022385 -0.065780 0
-0.011016 -0.033350 0
0.000000 0.000000 0
0.000000 -0.000000 0
-0.178845 -0.069983 0
-0.273784 -0.114089 0
-0.307174 -0.136614 0
-0.319015 -0.151358 0
-0.325218 -0.164503 0
-0.329893 -0.177656 0
-0.333939 -0.191107 0
-0.337529 -0.204856 0
-0.340681 -0.218850 0
-0.343386 -0.233036 0
-0.345630 -0.247362 0
-0.347398 -0.261774 0
-0.348674 -0.276219 0
-0.349443 -0.290641 0
-0.349690 -0.304978 0
-0.349399 -0.319166 0
-0.348551 -0.333136 0
-0.347129 -0.346814 0
-0.345115 -0.360119 0
-0.342488 -0.372962 0
-0.339227 -0.385249 0
-0.335311 -0.396878 0
-0.330718 -0.407735 0
-0.325427 -0.417701 0
-0.319415 -0.426643 0
-0.312663 -0.434418 0
-0.305147 -0.440870 0
-0.296847 -0.445829 0
-0.287744 -0.449111 0
-0.277823 -0.450523 0
-0.267075 -0.449863 0
-0.255506 -0.446933 0
-0.243135 -0.441543 0
-0.230005 -0.433522 0
-0.216174 -0.422724 0
-0.201719 -0.409044 0
-0.186734 -0.392436 0
-0.171329 -0.372923 0
-0.155630 -0.350603 0
-0.139775 -0.325657 0
-0.123909 -0.298345 0
-0.108184 -0.268999 0
-0.092748 -0.238004 0
-0.077736 -0.205768 0
-0.063262 -0.172680 0
-0.049409 -0.139067 0
-0.036215 -0.105133 0
-0.023663 -0.070890 0
-0.011657 -0.036073 0
0.000000 0.000000 0
0.000000 -0.000000 0
-0.182306 -0.064155 0
-0.277948 -0.104874 0
-0.311150 -0.126193 0
-0.323019 -0.140758 0
-0.329435 -0.154081 0
-0.334383 -0.167540 0
-0.338707 -0.181354 0
-0.342563 -0.195501 0
-0.345966 -0.209924 0
-0.348905 -0.224564 0
-0.351369 -0.239369 0
-0.353343 -0.254284 0
-0.354814 -0.269254 0
-0.355768 -0.284224 0
-0.356190 -0.299132 0
-0.356067 -0.313916 0
-0.355381 -0.328508 0
-0.354116 -0.342833 0
-0.352252 -0.356812 0
-0.349770 -0.370359 0
-0.346648 -0.383381 0
-0.342864 -0.395775 0
-0.338396 -0.407431 0
-0.333221 -0.418229 0
-0.327316 -0.428039 0
-0.320658 -0.436719 0
-0.313225 -0.444114 0
-0.304994 -0.450054 0
-0.295943 -0.454354 0
-0.286050 -0.456813 0
-0.275299 -0.457219 0
-0.263685 -0.455356 0
-0.251220 -0.451017 0
-0.237941 -0.444009 0
-0.223907 -0.434157 0
-0.209194 -0.421325 0
-0.193895 -0.405435 0
-0.178125 -0.386478 0
-0.162009 -0.364520 0
-0.145688 -0.339706 0
-0.129314 -0.312272 0
-0.113043 -0.282527 0
-0.097031 -0.250846 0
-0.081422 -0.217634 0
-0.066337 -0.183284 0
-0.051866 -0.148128 0
-0.038053 -0.112375 0
-0.024884 -0.076035 0
-0.012265 -0.038821 0
0.000000 -0.000000 0
0.000000 -0.000000 0
-0.185708 -0.057807 0
-0.282097 -0.094978 0
-0.315173 -0.115124 0
-0.327112 -0.129561 0
-0.333762 -0.143105 0
-0.338993 -0.156901 0
-0.343599 -0.171104 0
-0.347721 -0.185672 0
-0.351372 -0.200542 0
-0.354544 -0.215652 0
-0.357223 -0.230947 0
-0.359400 -0.246373 0
-0.361062 -0.261875 0
-0.362197 -0.277398 0
-0.362792 -0.292881 0
-0.362835 -0.308262 0
-0.362310 -0.323474 0
-0.361200 -0.338445 0
-0.359487 -0.353098 0
-0.357151 -0.367347 0
-0.354171 -0.381101 0
-0.350523 -0.394259 0
-0.346185 -0.406713 0
-0.341131 -0.418342 0
-0.335337 -0.429019 0
-0.328780 -0.438603 0
-0.321436 -0.446941 0
-0.313283 -0.453865 0
-0.304294 -0.459192 0
-0.294445 -0.462715 0
-0.283710 -0.464213 0
-0.272071 -0.463453 0
-0.259529 -0.460208 0
-0.246111 -0.454262 0
-0.231879 -0.445415 0
-0.216907 -0.433493 0
-0.201292 -0.418385 0
-0.185147 -0.400053 0
-0.168602 -0.378525 0
-0.151800 -0.353913 0
-0.134896 -0.326414 0
-0.118053 -0.296317 0
-0.101435 -0.263978 0
-0.085196 -0.229797 0
-0.069468 -0.194170 0
-0.054351 -0.157442 0
-0.039897 -0.119828 0
-0.026099 -0.081339 0
-0.012867 -0.041663 0
0.000000 -0.000000 0
0.000000 -0.000000 0
-0.189179 -0.051001 0
-0.286340 -0.084477 0
-0.319310 -0.103466 0
-0.331335 -0.117813 0
-0.338230 -0.131606 0
-0.343747 -0.145764 0
-0.348635 -0.160375 0
-0.353021 -0.175381 0
-0.356917 -0.190711 0
-0.360316 -0.206301 0
-0.363207 -0.222096 0
-0.365582 -0.238040 0
-0.367430 -0.254080 0
-0.368742 -0.270157 0
-0.369506 -0.286216 0
-0.369711 -0.302193 0
-0.369342 -0.318025 0
-0.368386 -0.333640 0
-0.366822 -0.348962 0
-0.364633 -0.363911 0
-0.361796 -0.378394 0
-0.358287 -0.392314 0
-0.354081 -0.405562 0
-0.349152 -0.418021 0
-0.343476 -0.429564 0
-0.337025 -0.440049 0
-0.329777 -0.449329 0
-0.321706 -0.457237 0
-0.312790 -0.463592 0
-0.303000 -0.468192 0
-0.292303 -0.470806 0
-0.280667 -0.471184 0
-0.268070 -0.469077 0
-0.254528 -0.464247 0
-0.240103 -0.456466 0
-0.224878 -0.445518 0
-0.208943 -0.431259 0
-0.192418 -0.413624 0
-0.175435 -0.392604 0
-0.158138 -0.368269 0
-0.140688 -0.340781 0
-0.123252 -0.310396 0
-0.106003 -0.277447 0
-0.089105 -0.242324 0
-0.072703 -0.205425 0
-0.056910 -0.167102 0
-0.041789 -0.127581 0
-0.027341 -0.086873 0
-0.013479 -0.044639 0
0.000000 0.000000 0
0.000000 -0.000000 0
-0.192774 -0.043755 0
-0.290723 -0.073393 0
-0.323585 -0.091238 0
-0.335704 -0.105525 0
-0.342850 -0.119593 0
-0.348655 -0.134132 0
-0.353824 -0.149169 0
-0.358472 -0.164627 0
-0.362610 -0.180429 0
-0.366232 -0.196511 0
-0.369330 -0.212814 0
-0.371897 -0.229282 0
-0.373925 -0.245862 0
-0.375407 -0.262497 0
-0.376334 -0.279131 0
-0.376695 -0.295703 0
-0.376479 -0.312151 0
-0.375671 -0.328405 0
-0.374254 -0.344393 0
-0.372209 -0.360035 0
-0.369515 -0.375243 0
-0.366146 -0.389920 0
-0.362076 -0.403960 0
-0.357278 -0.417246 0
-0.351723 -0.429652 0
-0.345385 -0.441038 0
-0.338237 -0.451255 0
-0.330255 -0.460142 0
-0.321416 -0.467524 0
-0.311696 -0.473203 0
-0.301060 -0.476950 0
-0.289461 -0.478502 0
-0.276848 -0.477578 0
-0.263199 -0.473921 0
-0.248588 -0.467273 0
-0.233118 -0.457366 0
-0.216863 -0.444023 0
-0.199954 -0.427159 0
-0.182525 -0.406725 0
-0.164723 -0.382750 0
-0.146710 -0.355355 0
-0.128663 -0.324756 0
-0.110760 -0.291260 0
-0.093177 -0.255237 0
-0.076072 -0.217082 0
-0.059572 -0.177152 0
-0.043753 -0.135681 0
-0.028627 -0.092677 0
-0.014112 -0.047774 0
0.000000 0.000000 0
0.000000 -0.000000 0
-0.196519 -0.036064 0
-0.295264 -0.061724 0
-0.328010 -0.078440 0
-0.340229 -0.092698 0
-0.347631 -0.107064 0
-0.353726 -0.122003 0
-0.359175 -0.137482 0
-0.364082 -0.153407 0
-0.368458 -0.169694 0
-0.372297 -0.186277 0
-0.375595 -0.203095 0
-0.378347 -0.220093 0
-0.380548 -0.237217 0
-0.382192 -0.254411 0
-0.383274 -0.271619 0
-0.383784 -0.288784 0
-0.383713 -0.305843 0
-0.383047 -0.322731 0
-0.381772 -0.339378 0
-0.379869 -0.355706 0
-0.377315 -0.371631 0
-0.374087 -0.387059 0
-0.370156 -0.401885 0
-0.365493 -0.415994 0
-0.360067 -0.429261 0
-0.353848 -0.441545 0
-0.346807 -0.452698 0
-0.338917 -0.462559 0
-0.330159 -0.470958 0
-0.320512 -0.477709 0
-0.309951 -0.482596 0
-0.298430 -0.485351 0
-0.285863 -0.485661 0
-0.272135 -0.483237 0
-0.257335 -0.477798 0
-0.241638 -0.469002 0
-0.225064 -0.456640 0
-0.207768 -0.440623 0
-0.189886 -0.420857 0
-0.171567 -0.397327 0
-0.152979 -0.370109 0
-0.134302 -0.339378 0
-0.115723 -0.305405 0
-0.097429 -0.268535 0
-0.079592 -0.229152 0
-0.062353 -0.187611 0
-0.045804 -0.144151 0
-0.029968 -0.098775 0
-0.014771 -0.051082 0
0.000000 -0.000000 0
0.000000 0.000000 0
-0.200434 -0.027916 0
-0.299981 -0.049460 0
-0.332598 -0.065065 0
-0.344921 -0.079325 0
-0.352583 -0.094014 0
-0.358971 -0.109372 0
-0.364698 -0.125311 0
-0.369860 -0.141716 0
-0.374467 -0.158501 0
-0.378516 -0.175595 0
-0.382006 -0.192937 0
-0.384934 -0.210470 0
-0.387298 -0.228140 0
-0.389095 -0.245894 0
-0.390322 -0.263675 0
-0.390972 -0.281428 0
-0.391037 -0.299093 0
-0.390506 -0.316608 0
-0.389366 -0.333904 0
-0.387599 -0.350909 0
-0.385184 -0.367541 0
-0.382095 -0.383710 0
-0.378304 -0.399315 0
-0.373780 -0.414242 0
-0.368490 -0.428366 0
-0.362399 -0.441547 0
-0.355473 -0.453635 0
-0.347683 -0.464466 0
-0.339006 -0.473871 0
-0.329425 -0.481675 0
-0.318937 -0.487687 0
-0.307525 -0.491661 0
-0.295118 -0.493257 0
-0.281358 -0.492142 0
-0.266329 -0.487999 0
-0.250451 -0.480388 0
-0.233556 -0.469071 0
-0.215872 -0.453978 0
-0.197531 -0.434962 0
-0.178686 -0.411963 0
-0.159508 -0.385010 0
-0.140184 -0.354234 0
-0.120907 -0.319861 0
-0.101876 -0.282206 0
-0.083276 -0.241631 0
-0.065265 -0.198484 0
-0.047952 -0.153002 0
-0.031373 -0.105179 0
-0.015461 -0.054575 0
0.000000 -0.000000 0
0.000000 0.000000 0
-0.204535 -0.019295 0
-0.304887 -0.036587 0
-0.337360 -0.051105 0
-0.349791 -0.065401 0
-0.357719 -0.080437 0
-0.364399 -0.096236 0
-0.370402 -0.112651 0
-0.375813 -0.129553 0
-0.380644 -0.146848 0
-0.384894 -0.164463 0
-0.388565 -0.182336 0
-0.391658 -0.200410 0
-0.394173 -0.218630 0
-0.396111 -0.236943 0
-0.397471 -0.255295 0
-0.398249 -0.273631 0
-0.398440 -0.291894 0
-0.398035 -0.310026 0
-0.397022 -0.327961 0
-0.395385 -0.345630 0
-0.393103 -0.362957 0
-0.390151 -0.379855 0
-0.386501 -0.396226 0
-0.382120 -0.411962 0
-0.376971 -0.426938 0
-0.371018 -0.441015 0
-0.364221 -0.454040 0
-0.356543 -0.465844 0
-0.347953 -0.476250 0
-0.338429 -0.485082 0
-0.327973 -0.492177 0
-0.316629 -0.497342 0
-0.303927 -0.500273 0
-0.290245 -0.500584 0
-0.275509 -0.497840 0
-0.259585 -0.491477 0
-0.242350 -0.481271 0
-0.224279 -0.467187 0
-0.205475 -0.449004 0
-0.186092 -0.426622 0
-0.166312 -0.400026 0
-0.146322 -0.369293 0
-0.126325 -0.334604 0
-0.106530 -0.296232 0
-0.087137 -0.254510 0
-0.068321 -0.209769 0
-0.050207 -0.162239 0
-0.032847 -0.111898 0
-0.016185 -0.058257 0
0.000000 0.000000 0
0.000000 0.000000 0
-0.208842 -0.010181 0
-0.310000 -0.023090 0
-0.342312 -0.036550 0
-0.354855 -0.050918 0
-0.363052 -0.066328 0
-0.370024 -0.082589 0
-0.376297 -0.099499 0
-0.381949 -0.116914 0
-0.386993 -0.134733 0
-0.391433 -0.152880 0
-0.395272 -0.171291 0
-0.398516 -0.189910 0
-0.401168 -0.208682 0
-0.403233 -0.227554 0
-0.404713 -0.246473 0
-0.405606 -0.265386 0
-0.405910 -0.284239 0
-0.405619 -0.302976 0
-0.404723 -0.321537 0
-0.403208 -0.339856 0
-0.401053 -0.357861 0
-0.398236 -0.375472 0
-0.394725 -0.392595 0
-0.390489 -0.409127 0
-0.385487 -0.424945 0
-0.379681 -0.439914 0
-0.373026 -0.453878 0
-0.365481 -0.466664 0
-0.357003 -0.478082 0
-0.347549 -0.487936 0
-0.337076 -0.496064 0
-0.325521 -0.502126 0
-0.312586 -0.505996 0
-0.298921 -0.507492 0
-0.284387 -0.506096 0
-0.268507 -0.501639 0
-0.251448 -0.493198 0
-0.233002 -0.480207 0
-0.213732 -0.462944 0
-0.193800 -0.441266 0
-0.173405 -0.415118 0
-0.152732 -0.384523 0
-0.131992 -0.349606 0
-0.111404 -0.310591 0
-0.091186 -0.267775 0
-0.071528 -0.221462 0
-0.052576 -0.171864 0
-0.034397 -0.118937 0
-0.016945 -0.062136 0
0.000000 0.000000 0
0.000000 0.000000 0
-0.213377 -0.000554 0
-0.315340 -0.008952 0
-0.347471 -0.021391 0
-0.360128 -0.035870 0
-0.368598 -0.051682 0
-0.375858 -0.068429 0
-0.382394 -0.085854 0
-0.388277 -0.103799 0
-0.393521 -0.122155 0
-0.398135 -0.140844 0
-0.402126 -0.159802 0
-0.405504 -0.178971 0
-0.408277 -0.198296 0
-0.410452 -0.217725 0
-0.412035 -0.237206 0
-0.413028 -0.256689 0
-0.413432 -0.276122 0
-0.413242 -0.295451 0
-0.412451 -0.314622 0
-0.411048 -0.333573 0
-0.409013 -0.352238 0
-0.406325 -0.370543 0
-0.402953 -0.388399 0
-0.398862 -0.405708 0
-0.394012 -0.422354 0
-0.388359 -0.438203 0
-0.381858 -0.453104 0
-0.374463 -0.466882 0
-0.366132 -0.479340 0
-0.356831 -0.490250 0
-0.346534 -0.499348 0
-0.334577 -0.506609 0
-0.321840 -0.511836 0
-0.308081 -0.514536 0
-0.293241 -0.514369 0
-0.277283 -0.511037 0
-0.260381 -0.504264 0
-0.242055 -0.492996 0
-0.222321 -0.476742 0
-0.201822 -0.455857 0
-0.180804 -0.430249 0
-0.159431 -0.399889 0
-0.137923 -0.364837 0
-0.116515 -0.325262 0
-0.095436 -0.281410 0